LAMMPS (7 Aug 2019)
# Ar molecule for density calculation
#
#
#
#

clear
units real
boundary p p p
atom_style atomic
read_data	argon.dat
Reading data file ...
  orthogonal box = (0 0 0) to (13 13 13)
  4 by 4 by 4 MPI processor grid
  reading atoms ...
  64 atoms
  read_data CPU = 0.00402308 secs

pair_style 	lj/cut 9.8
pair_coeff * * 0.2498 3.345

dump coord all custom 1 argon.dump id type x y z
dump video2 all atom 64 dump.Ar.lammpstrj


minimize 1e-4 1e-6 10000 10000
WARNING: Using 'neigh_modify every 1 delay 0 check yes' setting during minimization (../min.cpp:168)
Neighbor list info ...
  update every 1 steps, delay 0 steps, check yes
  max neighbors/atom: 2000, page size: 100000
  master list distance cutoff = 11.8
  ghost atom cutoff = 11.8
  binsize = 5.9, bins = 3 3 3
  1 neighbor lists, perpetual/occasional/extra = 1 0 0
  (1) pair lj/cut, perpetual
      attributes: half, newton on
      pair build: half/bin/atomonly/newton
      stencil: half/bin/3d/newton
      bin: standard
Setting up cg style minimization ...
  Unit style    : real
  Current step  : 0
Per MPI rank memory allocation (min/avg/max) = 4.133 | 5.598 | 6.383 Mbytes
Step Temp E_pair E_mol TotEng Press 
       0            0     854536.2            0     854536.2 1.0683676e+08 
     129            0   -122.46725            0   -122.46725    1831.6952 
Loop time of 0.12659 on 64 procs for 129 steps with 64 atoms

98.0% CPU use with 64 MPI tasks x no OpenMP threads

Minimization stats:
  Stopping criterion = energy tolerance
  Energy initial, next-to-last, final = 
         854536.203025     -122.464601723     -122.467250787
  Force two-norm initial, final = 8.75001e+06 0.366978
  Force max component initial, final = 5.11135e+06 0.0689081
  Final line search alpha, max atom move = 0.605604 0.041731
  Iterations, force evaluations = 129 175

MPI task timing breakdown:
Section |  min time  |  avg time  |  max time  |%varavg| %total
---------------------------------------------------------------
Pair    | 0.0002532  | 0.00082148 | 0.0015531  |   0.0 |  0.65
Neigh   | 0.00012422 | 0.00028287 | 0.00033712 |   0.0 |  0.22
Comm    | 0.033836   | 0.036014   | 0.038105   |   0.5 | 28.45
Output  | 0.013928   | 0.03568    | 0.064579   |   8.2 | 28.19
Modify  | 0          | 0          | 0          |   0.0 |  0.00
Other   |            | 0.05379    |            |       | 42.49

Nlocal:    1 ave 2 max 0 min
Histogram: 2 0 0 0 0 60 0 0 0 2
Nghost:    568.125 ave 575 max 562 min
Histogram: 22 2 2 6 0 0 14 0 14 4
Neighs:    97.2969 ave 171 max 0 min
Histogram: 2 0 0 6 13 17 14 10 0 2

Total # of neighbors = 6227
Ave neighs/atom = 97.2969
Neighbor list builds = 9
Dangerous builds = 0
Total wall time: 0:00:00
